#First Line
 9093 atoms
 6060 bonds
 6014 angles
 0 dihedrals
 0 impropers
 7 atom types
 1 bond types
 1 angle types
 0 dihedral types
 0 improper types
 -13.2 13.2 xlo xhi
 -13.2 13.2 ylo yhi
 -13.2 13.2 zlo zhi

Masses

1 1.0
2 1.0
3 1.0
4 1.0
5 1.0
6 1.0
7 1.0

Atoms

1 1 2 0.0   -4.145703  0.639304  0.360343
2 1 1 0.0   -4.076720  1.142279  0.763819
3 1 1 0.0   -4.073751  1.674535  1.038284
4 1 2 0.0   -4.025751  2.316614  1.053480
5 1 2 0.0   -3.944572  2.211462  1.683947
6 1 2 0.0   -4.021233  1.720036  2.106211
7 1 1 0.0   -3.820948  1.162287  1.933846
8 1 1 0.0   -4.120496  0.769373  1.504946
9 1 1 0.0   -3.871621  0.190298  1.315185
10 1 1 0.0   -3.562942  0.250280  1.882603
11 1 1 0.0   -3.691991  0.484091  2.488609
12 1 1 0.0   -3.381207  0.140984  2.941573
13 1 1 0.0   -2.968508  0.030871  3.451910
14 1 2 0.0   -2.601536  -0.339641  3.801905
15 1 2 0.0   -1.989649  -0.255825  4.113983
16 1 1 0.0   -1.964452  -0.466223  4.720005
17 1 1 0.0   -1.875688  -1.019818  4.988492
18 1 1 0.0   -1.892991  -1.268073  5.555624
19 1 2 0.0   -2.475965  -0.987175  5.549824
20 1 1 0.0   -2.764171  -0.643480  5.056805
21 1 1 0.0   -2.912045  -0.114929  4.784913
22 1 1 0.0   -2.957433  0.524302  4.732607
23 1 1 0.0   -2.622210  1.053541  4.795059
24 1 1 0.0   -2.602039  1.246495  4.144193
25 1 1 0.0   -2.315466  1.830358  4.319392
26 1 1 0.0   -2.936777  1.754813  4.452847
27 1 1 0.0   -3.299256  1.377582  4.764978
28 1 1 0.0   -3.801226  1.057834  5.025080
29 1 1 0.0   -3.691297  0.917048  5.629352
30 1 2 0.0   -3.628758  0.313412  5.352630
31 1 2 0.0   -3.635835  -0.213173  5.011870
32 1 1 0.0   -4.147251  0.146113  4.772323
33 1 1 0.0   -3.805830  0.624011  4.455727
34 1 2 0.0   -3.600107  0.795236  3.866205
35 1 2 0.0   -3.709675  0.914188  3.281281
36 1 1 0.0   -4.303195  0.953674  3.051651
37 1 2 0.0   -4.537063  1.043540  2.490799
38 1 2 0.0   -4.995111  1.388272  2.246845
39 1 2 0.0   -5.338195  1.923280  2.262677
40 1 1 0.0   -5.557313  1.615337  2.774784
41 1 1 0.0   -5.526836  1.860861  3.387346
42 1 1 0.0   -5.989979  2.142723  3.639344
43 1 1 0.0   -6.448351  1.902278  3.252541
44 1 1 0.0   -7.028090  1.729736  2.972476
45 1 1 0.0   -7.481474  1.407564  2.671930
46 1 1 0.0   -7.742824  1.249721  3.242922
47 1 1 0.0   -7.435707  1.625901  3.647560
48 1 2 0.0   -7.715627  2.039999  4.006686
49 1 2 0.0   -7.552867  2.640817  4.214410
50 1 2 0.0   -7.310721  2.526438  3.628214
51 1 2 0.0   -7.786949  2.259874  3.319745
52 1 1 0.0   -8.340089  1.927885  3.289323
53 1 1 0.0   -8.803747  2.091138  3.686270
54 1 1 0.0   -8.867494  1.844236  4.260298
55 1 1 0.0   -8.491508  1.382840  4.083745
56 1 1 0.0   -8.328613  1.220156  3.534342
57 1 2 0.0   -8.359787  1.163715  2.883193
58 1 2 0.0   -8.244249  1.692982  2.557146
59 1 2 0.0   -8.248558  1.842653  1.950232
60 1 1 0.0   -8.819794  1.897531  1.657704
61 1 2 0.0   -8.931638  1.596920  2.247554
62 1 2 0.0   -9.177193  1.208685  2.717207
63 1 2 0.0   -9.338038  1.219562  3.325689
64 1 2 0.0   -9.418780  0.614831  3.558010
65 1 1 0.0   -9.608915  0.321971  3.078012
66 1 1 0.0   -9.703312  0.453085  2.479870
67 1 1 0.0   -9.645457  0.987058  2.177683
68 1 1 0.0   -9.763140  1.146000  1.568126
69 1 2 0.0   -9.943381  0.934881  0.973977
70 1 2 0.0   -10.037958  0.906580  0.358412
71 1 2 0.0   -9.772964  1.130205  -0.168447
72 1 2 0.0   -9.646250  0.755996  -0.648625
73 1 2 0.0   -10.077046  1.073409  -0.920975
74 1 2 0.0   -10.246679  1.531866  -1.382250
75 1 2 0.0   -9.637325  1.381374  -1.361867
76 1 2 0.0   -9.024981  1.448170  -1.174545
77 1 2 0.0   -8.492279  1.518669  -0.825354
78 1 1 0.0   -8.390185  1.057529  -0.368369
79 1 1 0.0   -8.579429  0.850318  0.187127
80 1 2 0.0   -8.659996  0.301322  0.511070
81 1 2 0.0   -9.235448  0.173111  0.322149
82 1 2 0.0   -9.343519  0.246485  -0.312854
83 1 2 0.0   -9.647070  0.070895  -0.891841
84 1 2 0.0   -10.190536  0.374957  -0.850551
85 1 1 0.0   -10.754831  0.534935  -0.563723
86 1 1 0.0   -10.280735  0.461749  -0.125648
87 1 1 0.0   -10.046352  0.165742  0.380561
88 1 2 0.0   -9.872847  -0.269032  0.826192
89 1 2 0.0   -10.108134  -0.401584  1.379228
90 1 2 0.0   -9.754241  -0.586503  1.902176
91 1 2 0.0   -9.928072  -0.332786  2.454915
92 1 2 0.0   -10.193971  0.116039  2.131363
93 1 1 0.0   -10.569140  0.285721  1.678387
94 1 1 0.0   -10.768458  0.693668  1.217389
95 1 1 0.0   -10.762423  1.222767  0.875093
96 1 2 0.0   -10.370447  1.580710  0.497325
97 1 2 0.0   -10.336735  1.957794  0.006955
98 1 1 0.0   -10.837027  2.195590  -0.380078
99 1 1 0.0   -11.273636  2.124998  0.108572
100 1 2 0.0   -11.315672  2.209979  0.714405
101 1 1 0.0   -11.229115  2.047138  1.334968
102 1 2 0.0   -10.666370  1.836555  1.211028
103 1 2 0.0   -10.000285  1.872229  1.199905
104 1 2 0.0   -9.526688  1.481499  1.006525
105 1 2 0.0   -9.040803  1.161618  0.725500
106 1 2 0.0   -8.682984  0.755679  1.044439
107 1 2 0.0   -8.538997  0.878212  1.677711
108 1 2 0.0   -8.695148  0.882519  2.280668
109 1 1 0.0   -8.152483  0.561279  2.289967
110 1 1 0.0   -7.601387  0.206204  2.063057
111 1 1 0.0   -7.358381  -0.165264  2.512522
112 1 2 0.0   -7.848385  -0.414629  2.226507
113 1 1 0.0   -7.666762  -0.488620  1.566852
114 1 1 0.0   -7.832484  -0.012692  1.174892
115 1 1 0.0   -7.357847  0.305418  1.389552
116 1 1 0.0   -6.887636  0.499651  1.806487
117 1 2 0.0   -6.655727  0.972209  2.211255
118 1 1 0.0   -6.634533  1.563986  2.424604
119 1 2 0.0   -6.431370  2.176119  2.376285
120 1 1 0.0   -6.644870  2.523206  1.815396
121 1 3 0.0   -6.759822  2.071104  1.402319
122 1 3 0.0   -7.011703  1.531338  1.564471
123 1 3 0.0   -7.611096  1.346054  1.435324
124 1 3 0.0   -8.160334  1.291842  1.056390
125 1 3 0.0   -7.957033  1.198309  0.509088
126 1 3 0.0   -7.931518  0.794255  0.035846
127 1 3 0.0   -8.106997  0.218154  -0.128138
128 1 3 0.0   -8.505929  0.124034  -0.649668
129 1 3 0.0   -8.716913  -0.443174  -0.475218
130 1 4 0.0   -8.206706  -0.494769  -0.117585
131 1 4 0.0   -7.894245  -0.571454  0.431177
132 1 4 0.0   -7.405313  -0.486566  0.842886
133 1 4 0.0   -7.143597  0.061876  0.749760
134 1 4 0.0   -6.815206  0.645675  0.689190
135 1 4 0.0   -7.028377  1.227476  0.485191
136 1 3 0.0   -6.820137  1.820825  0.499941
137 1 3 0.0   -6.373716  1.429430  0.649506
138 1 3 0.0   -5.939159  1.038651  0.332138
139 1 3 0.0   -6.133098  0.447309  0.441796
140 1 3 0.0   -6.586229  0.038182  0.161607
141 1 3 0.0   -6.627779  -0.543846  -0.089864
142 1 3 0.0   -6.064464  -0.835863  -0.005854
143 1 3 0.0   -5.753366  -0.355204  0.300094
144 1 3 0.0   -5.167378  -0.011357  0.439541
145 1 2 0.0   -4.718603  0.219998  0.828985
146 1 1 0.0   -4.545795  0.028532  1.413876
147 1 2 0.0   -4.935721  0.446106  1.677545
148 1 2 0.0   -5.026466  1.039591  1.471231
149 1 2 0.0   -5.108691  1.185653  0.858948
150 1 2 0.0   -5.422885  0.649351  0.928280
151 1 1 0.0   -5.971224  0.701889  1.260946
152 1 1 0.0   -5.707837  1.192831  1.565540
153 1 2 0.0   -5.645501  1.834462  1.694242
154 1 1 0.0   -5.754874  2.303028  1.287279
155 1 1 0.0   -6.010340  2.819539  1.124741
156 1 1 0.0   -5.934041  3.347128  0.842890
157 1 1 0.0   -5.374567  3.715295  0.867966
158 1 2 0.0   -5.752885  3.762805  1.392755
159 1 2 0.0   -5.936907  3.405015  1.940047
160 1 1 0.0   -6.282662  3.045140  2.362974
161 1 2 0.0   -6.891753  3.103891  2.223023
162 1 1 0.0   -7.247901  2.585515  2.405886
163 1 1 0.0   -6.981369  2.455947  2.974852
164 1 2 0.0   -6.470032  2.779054  3.199595
165 1 2 0.0   -6.412830  3.390934  3.081052
166 1 2 0.0   -6.193655  3.404389  3.653919
167 1 2 0.0   -6.633959  3.517239  4.066363
168 1 2 0.0   -7.303155  3.547184  4.101662
169 1 2 0.0   -7.916487  3.583374  4.052595
170 1 2 0.0   -8.479755  3.457630  4.290372
171 1 1 0.0   -8.667541  2.893946  4.054607
172 1 1 0.0   -8.475034  2.643906  3.478763
173 1 1 0.0   -8.731085  2.876388  2.924776
174 1 1 0.0   -8.692878  2.434418  2.480776
175 1 2 0.0   -8.096364  2.455516  2.269585
176 1 2 0.0   -8.126760  2.432313  1.592760
177 1 2 0.0   -7.820479  2.284010  1.022825
178 1 2 0.0   -7.241119  2.098457  0.935210
179 1 1 0.0   -6.839549  2.569158  0.688621
180 1 1 0.0   -7.016657  3.141520  0.862841
181 1 1 0.0   -6.575005  3.540956  0.534055
182 1 2 0.0   -6.581906  4.170794  0.683465
183 1 2 0.0   -6.491680  4.498256  1.272331
184 1 1 0.0   -6.833354  4.047841  1.576703
185 1 1 0.0   -7.242306  3.640527  1.792383
186 1 1 0.0   -7.619040  3.350572  2.241800
187 1 1 0.0   -8.004884  3.119537  2.666016
188 1 2 0.0   -7.661523  2.941502  3.138978
189 1 2 0.0   -7.152554  3.307674  3.025728
190 1 2 0.0   -7.551004  3.636052  2.656756
191 1 2 0.0   -7.896305  4.019628  2.248926
192 1 2 0.0   -8.374328  4.327703  2.433121
193 1 2 0.0   -8.993507  4.206649  2.411566
194 1 1 0.0   -9.616464  3.933517  2.310516
195 1 2 0.0   -9.493594  3.410862  1.980586
196 1 2 0.0   -8.954522  3.114857  2.064785
197 1 2 0.0   -8.559891  3.407297  2.500467
198 1 1 0.0   -8.236375  3.774756  2.851959
199 1 1 0.0   -7.694134  3.938652  3.159475
200 1 1 0.0   -7.106699  4.115351  3.275506
201 1 1 0.0   -6.483426  4.006087  3.334505
202 1 1 0.0   -5.895851  4.008809  3.069758
203 1 1 0.0   -5.525344  4.360653  2.662584
204 1 1 0.0   -5.747529  4.709515  2.235274
205 1 1 0.0   -6.384246  4.704565  2.165245
206 1 1 0.0   -7.044256  4.611404  2.114282
207 1 1 0.0   -7.618385  4.819822  2.310410
208 1 1 0.0   -7.904812  5.385504  2.181351
209 1 2 0.0   -8.170539  5.277645  1.600439
210 1 2 0.0   -8.179201  4.643291  1.475765
211 1 2 0.0   -8.336881  4.081817  1.167088
212 1 1 0.0   -7.959574  3.718137  0.834386
213 1 1 0.0   -7.646851  3.288624  1.248776
214 1 2 0.0   -8.193423  3.149630  1.570116
215 1 1 0.0   -8.668482  3.601317  1.556425
216 1 1 0.0   -9.128244  3.859046  1.214084
217 1 2 0.0   -8.764187  3.576007  0.836774
218 1 2 0.0   -8.630012  3.309602  0.279817
219 1 2 0.0   -8.095413  2.895050  0.362377
220 1 2 0.0   -7.757968  2.489116  -0.024734
221 1 2 0.0   -7.292914  2.341186  -0.466191
222 1 1 0.0   -6.978734  2.006424  -0.906867
223 1 1 0.0   -6.906379  1.906325  -1.554506
224 1 1 0.0   -7.360034  2.013973  -2.030562
225 1 1 0.0   -7.657276  2.066421  -2.560138
226 1 1 0.0   -7.368006  2.041885  -3.132020
227 1 1 0.0   -6.960849  1.747520  -3.501876
228 1 1 0.0   -7.075090  1.397904  -3.995822
229 1 2 0.0   -7.306356  1.183535  -4.501870
230 1 2 0.0   -7.563541  0.930453  -5.023662
231 1 2 0.0   -7.747139  1.034535  -5.626630
232 1 2 0.0   -8.244092  1.043456  -5.994894
233 1 2 0.0   -8.616813  1.268394  -5.576562
234 1 2 0.0   -8.377524  1.246020  -4.950873
235 1 1 0.0   -8.575212  1.275264  -4.359878
236 1 1 0.0   -8.130829  1.641970  -4.156304
237 1 2 0.0   -7.839157  1.861655  -3.632559
238 1 2 0.0   -8.398837  1.674471  -3.291095
239 1 2 0.0   -8.530448  2.229718  -3.566679
240 1 2 0.0   -8.119589  2.741241  -3.711553
241 1 1 0.0   -8.029936  2.669207  -3.045794
242 1 2 0.0   -8.486025  2.459859  -2.668544
243 1 2 0.0   -9.108565  2.293968  -2.716376
244 1 1 0.0   -9.412224  1.748778  -2.541309
245 1 1 0.0   -10.032717  1.657041  -2.567566
246 1 1 0.0   -10.290306  1.055547  -2.431322
247 1 1 0.0   -10.226110  0.532989  -2.088897
248 1 2 0.0   -10.102714  0.039110  -1.742850
249 1 2 0.0   -9.865520  0.187313  -2.308402
250 1 2 0.0   -9.400761  0.285468  -2.882569
251 2 2 0.0   -2.223550  -0.019991  1.262122
252 2 1 0.0   -2.029922  -0.560840  1.019074
253 2 1 0.0   -1.522194  -0.843684  0.775878
254 2 2 0.0   -0.974832  -0.966809  0.463792
255 2 2 0.0   -0.489482  -1.316695  0.331481
256 2 2 0.0   0.079091  -1.411445  0.568819
257 2 1 0.0   -0.111639  -0.811044  0.600489
258 2 1 0.0   -0.336321  -0.221577  0.630686
259 2 1 0.0   -0.597543  -0.484877  1.144253
260 2 1 0.0   -1.089479  -0.486395  1.570023
261 2 1 0.0   -1.365939  -0.700867  2.111079
262 2 1 0.0   -1.984841  -0.818581  2.131615
263 2 1 0.0   -2.522295  -1.111155  2.231435
264 2 2 0.0   -3.138638  -1.035116  2.320161
265 2 2 0.0   -3.167348  -0.590080  1.887459
266 2 1 0.0   -2.859913  -0.000894  1.811353
267 2 1 0.0   -2.911327  -0.144849  2.406474
268 2 1 0.0   -3.157980  -0.548764  2.833733
269 2 2 0.0   -3.001902  -1.052888  3.242113
270 2 1 0.0   -2.405750  -1.254160  3.405354
271 2 1 0.0   -2.122144  -0.661571  3.424263
272 2 1 0.0   -1.600652  -0.299548  3.301474
273 2 1 0.0   -1.326046  0.286622  3.236354
274 2 1 0.0   -1.136461  0.719260  2.771490
275 2 1 0.0   -1.146889  1.354714  2.816348
276 2 1 0.0   -1.515229  1.768387  2.462837
277 2 1 0.0   -1.665833  2.145922  1.959104
278 2 1 0.0   -1.850992  1.579357  1.782881
279 2 1 0.0   -2.317202  1.911938  2.044438
280 2 2 0.0   -2.610738  1.936911  2.602316
281 2 2 0.0   -2.262362  1.724221  3.091984
282 2 1 0.0   -2.021932  1.245355  3.478756
283 2 1 0.0   -2.000633  0.577740  3.305062
284 2 2 0.0   -1.719629  0.245888  2.759477
285 2 2 0.0   -1.471851  -0.042850  2.247038
286 2 1 0.0   -0.886864  0.199610  2.089630
287 2 2 0.0   -0.851777  0.781956  1.950280
288 2 2 0.0   -1.309264  0.900827  1.542452
289 2 2 0.0   -1.869985  1.029146  1.195185
290 2 1 0.0   -1.913049  0.554146  1.600932
291 2 1 0.0   -2.501147  0.820905  1.616441
292 2 1 0.0   -3.143352  0.898158  1.611816
293 2 1 0.0   -3.024262  0.750010  2.216649
294 2 1 0.0   -2.632417  1.052888  2.580447
295 2 1 0.0   -2.640886  0.991029  3.184257
296 2 1 0.0   -2.938260  1.414268  3.534060
297 2 1 0.0   -3.502280  1.564305  3.725897
298 2 2 0.0   -4.027068  1.547189  3.349096
299 2 2 0.0   -4.275148  2.058402  3.025645
300 2 2 0.0   -4.273728  2.553728  2.569402
301 2 2 0.0   -4.228706  2.930759  2.062148
302 2 1 0.0   -3.745970  3.323370  1.928591
303 2 1 0.0   -3.216490  3.179765  1.589765
304 2 1 0.0   -3.185519  3.648678  1.176530
305 2 1 0.0   -3.632166  4.059198  1.231935
306 2 1 0.0   -3.891834  3.982214  0.653561
307 2 2 0.0   -3.948129  3.972033  0.041668
308 2 2 0.0   -4.100803  4.111924  -0.558846
309 2 2 0.0   -3.985971  4.497655  -1.077740
310 2 1 0.0   -3.857073  5.039785  -1.416813
311 2 2 0.0   -3.787570  5.579470  -1.812646
312 2 2 0.0   -3.726695  6.023263  -2.292626
313 2 2 0.0   -3.190233  6.332979  -2.454469
314 2 2 0.0   -2.910506  5.865789  -2.764352
315 2 1 0.0   -2.471596  5.693163  -2.346901
316 2 1 0.0   -2.220975  5.949975  -1.814330
317 2 1 0.0   -1.910557  6.185652  -1.331249
318 2 1 0.0   -1.566692  6.086959  -0.804685
319 2 2 0.0   -1.069100  6.275177  -0.478770
320 2 2 0.0   -0.575719  6.592573  -0.301596
321 2 2 0.0   -0.095149  6.398299  -0.688673
322 2 2 0.0   -0.196603  5.809714  -0.921848
323 2 2 0.0   -0.817134  5.491857  -0.883667
324 2 2 0.0   -1.372989  5.330020  -0.662493
325 2 2 0.0   -1.974386  5.231863  -0.446824
326 2 2 0.0   -2.005772  4.602840  -0.469246
327 2 2 0.0   -2.270926  4.765157  -1.032256
328 2 1 0.0   -2.778432  4.565501  -1.345826
329 2 1 0.0   -3.338691  4.676402  -1.029164
330 2 2 0.0   -3.477897  4.647828  -0.388269
331 2 2 0.0   -3.044240  5.005947  -0.111897
332 2 2 0.0   -2.751674  5.555348  -0.347088
333 2 2 0.0   -2.674876  5.609505  -0.981552
334 2 2 0.0   -2.298034  5.115008  -1.102705
335 2 1 0.0   -2.228871  5.207365  -1.760356
336 2 1 0.0   -2.844063  5.090590  -1.826669
337 2 1 0.0   -3.262176  4.635242  -1.874620
338 2 2 0.0   -3.020202  4.203625  -2.215092
339 2 2 0.0   -2.409023  4.324627  -2.089450
340 2 2 0.0   -1.911120  4.375755  -1.708448
341 2 2 0.0   -1.447375  4.407358  -1.240920
342 2 2 0.0   -0.938598  4.542914  -1.601384
343 2 1 0.0   -1.045226  3.900641  -1.750115
344 2 1 0.0   -1.133168  3.243469  -1.803842
345 2 1 0.0   -1.126674  3.158182  -2.433289
346 2 2 0.0   -1.276088  3.101090  -3.079818
347 2 2 0.0   -1.075136  3.396261  -3.578455
348 2 1 0.0   -1.003206  4.021869  -3.647224
349 2 1 0.0   -0.923303  4.517156  -3.235158
350 2 2 0.0   -1.231448  4.103363  -2.861594
351 2 1 0.0   -1.480664  3.738107  -2.378834
352 2 2 0.0   -1.898227  3.690368  -1.941489
353 2 2 0.0   -2.364621  3.813272  -1.563615
354 2 2 0.0   -2.741186  3.705208  -1.080426
355 2 2 0.0   -3.193410  4.038222  -0.846425
356 2 2 0.0   -2.791773  4.448655  -0.491627
357 2 2 0.0   -2.483870  4.577237  0.010143
358 2 2 0.0   -2.189383  4.035292  0.183917
359 2 1 0.0   -2.061158  3.925030  -0.416628
360 2 1 0.0   -2.015922  3.974263  -1.052500
361 2 1 0.0   -2.046017  3.339869  -1.041474
362 2 2 0.0   -2.058783  3.145334  -0.448995
363 2 1 0.0   -1.582750  3.476104  -0.179186
364 2 1 0.0   -1.179729  3.928326  -0.389441
365 2 1 0.0   -0.929237  3.462875  -0.720875
366 2 1 0.0   -0.837866  2.971305  -1.145662
367 2 2 0.0   -0.617178  2.847499  -1.786116
368 2 1 0.0   -0.081237  3.106061  -1.932738
369 2 2 0.0   0.006633  3.603675  -1.521544
370 2 1 0.0   -0.400683  4.079187  -1.568805
371 2 3 0.0   -0.211428  4.585013  -1.907085
372 2 3 0.0   0.314922  4.956716  -1.968862
373 2 3 0.0   0.585394  4.456078  -2.329177
374 2 3 0.0   1.224353  4.578533  -2.389729
375 2 3 0.0   1.248384  5.122169  -2.081359
376 2 3 0.0   0.898578  5.657072  -2.012726
377 2 3 0.0   0.665957  6.118311  -2.364666
378 2 3 0.0   0.052143  6.145106  -2.162983
379 2 3 0.0   -0.153720  5.576446  -2.106283
380 2 4 0.0   -0.698191  5.286599  -1.949540
381 2 4 0.0   -1.026035  4.825552  -2.198083
382 2 4 0.0   -1.525151  4.738997  -2.544104
383 2 4 0.0   -1.980895  4.892704  -2.906687
384 2 4 0.0   -2.398344  5.264399  -3.222424
385 2 4 0.0   -1.832290  5.536932  -3.264365
386 2 3 0.0   -1.281435  5.313562  -3.043784
387 2 3 0.0   -0.664599  5.154337  -2.871072
388 2 3 0.0   -0.092591  4.987665  -2.648409
389 2 3 0.0   0.527427  5.088346  -2.823723
390 2 3 0.0   1.172251  5.178826  -2.728174
391 2 3 0.0   1.055202  5.802344  -2.875015
392 2 3 0.0   0.401756  5.920858  -3.006866
393 2 3 0.0   -0.224345  5.898991  -3.233212
394 2 3 0.0   -0.623638  6.379896  -3.450640
395 2 2 0.0   -0.910758  6.627282  -4.012871
396 2 1 0.0   -1.404691  6.653908  -4.335344
397 2 2 0.0   -1.422956  6.527704  -4.974844
398 2 2 0.0   -1.338802  6.469272  -5.570122
399 2 2 0.0   -1.580139  6.438405  -6.130734
400 2 2 0.0   -1.617573  6.165930  -6.732969
401 2 1 0.0   -1.480473  6.100390  -7.432946
402 2 1 0.0   -1.316578  6.455994  -7.942254
403 2 2 0.0   -1.797933  6.846979  -7.854443
404 2 1 0.0   -2.195874  7.175623  -7.497161
405 2 1 0.0   -2.200012  7.360499  -6.863954
406 2 1 0.0   -2.508639  7.670189  -6.404252
407 2 1 0.0   -3.050865  7.619751  -6.054030
408 2 2 0.0   -3.277736  7.746821  -5.410619
409 2 2 0.0   -2.822621  7.403756  -5.071940
410 2 1 0.0   -2.147434  7.393280  -5.019128
411 2 2 0.0   -1.727681  7.185052  -4.650306
412 2 1 0.0   -2.030347  6.908128  -4.173720
413 2 1 0.0   -1.831991  6.369854  -3.805580
414 2 2 0.0   -1.502017  5.945251  -4.155574
415 2 2 0.0   -1.489987  5.867506  -4.787958
416 2 2 0.0   -1.904506  6.120341  -5.273046
417 2 2 0.0   -2.391583  5.956517  -5.660888
418 2 2 0.0   -2.778590  6.317901  -5.969146
419 2 2 0.0   -2.537246  6.815930  -5.620935
420 2 2 0.0   -2.391264  6.740955  -5.008104
421 2 1 0.0   -2.470602  6.319243  -4.553360
422 2 1 0.0   -2.829116  5.839734  -4.219303
423 2 1 0.0   -3.293272  5.942769  -4.711442
424 2 1 0.0   -3.002566  5.590436  -5.199196
425 2 2 0.0   -2.658571  5.346244  -4.757061
426 2 2 0.0   -2.148642  5.374062  -4.370817
427 2 2 0.0   -1.529771  5.263734  -4.210441
428 2 2 0.0   -1.164154  4.739020  -4.340748
429 2 1 0.0   -1.336486  4.195816  -4.612430
430 2 1 0.0   -1.477058  3.680509  -4.250703
431 2 1 0.0   -1.739587  3.149650  -4.105947
432 2 2 0.0   -1.874805  2.874264  -3.547657
433 2 2 0.0   -2.225441  3.127089  -3.031215
434 2 1 0.0   -2.774270  3.431717  -3.145793
435 2 1 0.0   -3.210498  3.240441  -3.573636
436 2 1 0.0   -2.698729  2.900969  -3.756904
437 2 1 0.0   -2.314796  3.427629  -3.774024
438 2 2 0.0   -1.779410  3.619465  -3.488145
439 2 2 0.0   -1.726454  4.251248  -3.552634
440 2 2 0.0   -1.981502  4.726936  -3.935807
441 2 2 0.0   -2.389423  4.162883  -4.049763
442 2 2 0.0   -2.489034  3.999483  -3.431190
443 2 2 0.0   -2.662412  4.544932  -3.184209
444 2 1 0.0   -3.164484  4.841514  -2.869827
445 2 2 0.0   -3.611016  5.187041  -3.215786
446 2 2 0.0   -3.452897  5.249934  -3.822478
447 2 2 0.0   -2.958283  4.997398  -4.146703
448 2 1 0.0   -2.663944  4.594933  -4.494425
449 2 1 0.0   -2.245074  4.431901  -4.901479
450 2 1 0.0   -1.915174  3.881894  -4.960070
451 2 1 0.0   -1.538891  3.345035  -5.074393
452 2 1 0.0   -1.017430  3.314806  -5.498049
453 2 1 0.0   -0.967018  3.151698  -6.132399
454 2 1 0.0   -0.843159  3.092717  -6.732804
455 2 1 0.0   -1.211559  2.694398  -7.073444
456 2 1 0.0   -1.715556  2.329788  -6.931573
457 2 1 0.0   -2.180382  1.899523  -6.973275
458 2 1 0.0   -2.802399  1.662013  -6.844656
459 2 2 0.0   -3.405774  1.867383  -6.794422
460 2 2 0.0   -3.938828  2.183033  -6.807505
461 2 2 0.0   -4.571099  2.334911  -6.812590
462 2 1 0.0   -4.775547  2.858251  -6.497209
463 2 1 0.0   -4.267712  3.283884  -6.472677
464 2 2 0.0   -3.933760  3.820936  -6.307077
465 2 1 0.0   -3.777338  4.095612  -5.755911
466 2 1 0.0   -3.328099  3.896385  -5.332041
467 2 2 0.0   -3.114271  3.366535  -5.027827
468 2 2 0.0   -3.091094  2.958899  -4.522443
469 2 2 0.0   -2.715291  2.513887  -4.705010
470 2 2 0.0   -2.321259  3.015670  -5.027041
471 2 2 0.0   -2.577507  3.357509  -5.483262
472 2 1 0.0   -3.005668  3.522958  -5.928385
473 2 1 0.0   -2.950847  3.569585  -6.525581
474 2 1 0.0   -2.971718  3.112398  -6.933942
475 2 1 0.0   -2.600587  2.622699  -6.793530
476 2 1 0.0   -2.311373  2.847541  -6.289031
477 2 1 0.0   -1.764691  3.203846  -6.306059
478 2 1 0.0   -1.482785  3.408698  -6.825981
479 2 2 0.0   -1.866238  3.447995  -7.309423
480 2 2 0.0   -1.868037  3.901222  -7.744667
481 2 2 0.0   -2.223296  3.630864  -8.162737
482 2 2 0.0   -2.286765  3.015309  -8.002487
483 2 2 0.0   -2.392214  2.937792  -7.405591
484 2 2 0.0   -1.973435  2.451909  -7.554020
485 2 1 0.0   -2.540985  2.405743  -7.857881
486 2 1 0.0   -3.059740  2.756848  -7.614383
487 2 2 0.0   -3.255729  3.313818  -7.715837
488 2 2 0.0   -3.271205  3.926595  -7.759968
489 2 2 0.0   -2.856145  4.449282  -7.738786
490 2 2 0.0   -2.389633  4.888153  -7.816461
491 2 1 0.0   -1.905074  5.285779  -7.805792
492 2 2 0.0   -2.141967  5.791350  -8.079982
493 2 2 0.0   -1.921044  6.193682  -8.510303
494 2 1 0.0   -1.525716  5.710144  -8.675141
495 2 1 0.0   -2.058690  5.337671  -8.783720
496 2 1 0.0   -2.593545  5.254822  -8.480179
497 2 1 0.0   -3.210846  5.210228  -8.270966
498 2 2 0.0   -3.639624  5.683453  -8.031661
499 2 2 0.0   -3.730873  6.183412  -7.608549
500 2 2 0.0   -3.723845  6.047338  -7.005926
501 3 2 0.0   -5.321853  -3.802223  0.490147
502 3 2 0.0   -5.727136  -4.260022  0.561893
503 3 2 0.0   -6.128959  -4.740017  0.686689
504 3 2 0.0   -6.436968  -4.916404  0.174928
505 3 2 0.0   -6.318455  -4.374725  -0.130508
506 3 2 0.0   -6.088881  -3.800547  -0.054569
507 3 2 0.0   -5.527401  -3.657928  -0.342269
508 3 2 0.0   -4.941923  -3.970371  -0.487081
509 3 1 0.0   -4.784489  -3.450648  -0.895762
510 3 1 0.0   -4.975890  -2.914600  -1.258947
511 3 1 0.0   -5.331505  -2.588892  -0.853038
512 3 1 0.0   -5.582337  -2.202707  -0.447724
513 3 1 0.0   -5.938519  -1.680062  -0.308462
514 3 2 0.0   -6.305508  -1.823401  -0.827541
515 3 2 0.0   -6.818566  -1.707850  -1.208052
516 3 2 0.0   -7.244471  -1.611953  -1.657704
517 3 2 0.0   -7.348343  -1.397592  -2.275913
518 3 2 0.0   -7.816407  -1.102059  -2.042210
519 3 1 0.0   -8.056814  -1.345911  -1.485781
520 3 1 0.0   -7.789217  -1.261574  -0.920194
521 3 1 0.0   -7.195294  -1.403817  -0.741246
522 3 2 0.0   -6.656458  -1.104077  -0.799300
523 3 2 0.0   -6.033998  -1.056486  -0.660293
524 3 1 0.0   -5.464675  -0.920625  -0.321695
525 3 1 0.0   -5.199070  -1.123535  0.281009
526 3 1 0.0   -4.990026  -1.109744  0.879386
527 3 1 0.0   -4.601651  -1.166830  1.347398
528 3 1 0.0   -4.304907  -0.827742  1.764333
529 3 1 0.0   -4.027789  -0.440052  2.162452
530 3 2 0.0   -4.298682  0.100069  2.381364
531 3 1 0.0   -4.847166  -0.021085  2.706060
532 3 2 0.0   -4.411112  -0.537931  2.775993
533 3 1 0.0   -3.896433  -0.895913  2.710635
534 3 1 0.0   -3.579673  -1.443026  2.775615
535 3 2 0.0   -3.411212  -1.816660  3.243106
536 3 2 0.0   -3.741158  -2.333041  3.253377
537 3 1 0.0   -3.991561  -2.901443  3.313447
538 3 1 0.0   -3.724110  -3.389620  2.962533
539 3 1 0.0   -3.116616  -3.238536  3.010729
540 3 1 0.0   -2.867029  -3.648695  2.495635
541 3 1 0.0   -2.517828  -3.900736  1.973302
542 3 2 0.0   -2.674548  -3.599793  1.448820
543 3 1 0.0   -2.639896  -3.016913  1.279086
544 3 1 0.0   -2.520507  -2.414301  1.440845
545 3 1 0.0   -2.286006  -1.817657  1.465147
546 3 1 0.0   -2.055249  -1.226573  1.599019
547 3 1 0.0   -1.453629  -1.128889  1.524386
548 3 1 0.0   -1.349186  -1.723015  1.345403
549 3 2 0.0   -1.229782  -2.317387  1.506306
550 3 2 0.0   -1.550576  -2.726552  1.849574
551 3 2 0.0   -1.947517  -3.170228  1.938388
552 3 2 0.0   -2.344098  -3.218714  2.441637
553 3 2 0.0   -2.807101  -2.805633  2.365729
554 3 1 0.0   -3.382133  -2.983916  2.061913
555 3 1 0.0   -3.501980  -3.483592  1.687632
556 3 1 0.0   -3.970172  -3.595200  1.289413
557 3 1 0.0   -4.486248  -3.219767  1.560368
558 3 2 0.0   -5.010862  -3.522572  1.498372
559 3 2 0.0   -4.699088  -3.830921  1.042790
560 3 2 0.0   -4.504890  -3.264941  0.862693
561 3 2 0.0   -4.094308  -2.766188  0.864237
562 3 1 0.0   -3.586076  -2.459477  1.010025
563 3 1 0.0   -3.236840  -2.153251  1.398671
564 3 1 0.0   -2.914844  -1.604391  1.374515
565 3 1 0.0   -2.886365  -0.983176  1.174628
566 3 1 0.0   -3.488061  -1.061126  1.261708
567 3 1 0.0   -3.879231  -1.366740  1.620913
568 3 1 0.0   -3.638329  -1.864886  1.915603
569 3 1 0.0   -4.013943  -1.829260  2.440268
570 3 1 0.0   -4.446661  -1.405330  2.756481
571 3 1 0.0   -4.933442  -1.055804  3.011988
572 3 1 0.0   -5.297325  -0.616535  2.709618
573 3 1 0.0   -5.887997  -0.679383  2.443581
574 3 1 0.0   -6.125527  -0.281645  2.010860
575 3 1 0.0   -6.453065  -0.129338  1.476141
576 3 1 0.0   -6.930788  -0.432630  1.719122
577 3 2 0.0   -6.687480  -0.920980  1.979355
578 3 2 0.0   -6.330298  -1.400828  2.139756
579 3 2 0.0   -6.621158  -1.976295  2.259105
580 3 2 0.0   -6.194334  -2.293326  2.637072
581 3 2 0.0   -5.796116  -2.653576  2.989428
582 3 2 0.0   -5.233907  -2.516512  3.230564
583 3 2 0.0   -4.631447  -2.660557  2.873673
584 3 2 0.0   -4.075281  -2.775673  2.552664
585 3 1 0.0   -4.416746  -3.273557  2.278991
586 3 1 0.0   -4.801384  -3.739683  2.153348
587 3 1 0.0   -4.758361  -4.295852  1.878929
588 3 1 0.0   -5.353412  -4.427162  1.769661
589 3 2 0.0   -5.772902  -3.948913  2.002163
590 3 2 0.0   -5.466406  -3.367463  2.161046
591 3 2 0.0   -5.109130  -2.886405  2.361443
592 3 3 0.0   -4.983864  -2.322227  2.111823
593 3 3 0.0   -4.596066  -1.801198  1.953054
594 3 3 0.0   -4.870060  -2.048668  1.428442
595 3 3 0.0   -5.454425  -2.244091  1.413085
596 3 3 0.0   -5.815161  -2.182074  1.940793
597 3 3 0.0   -5.503785  -1.820138  2.349773
598 3 1 0.0   -5.324447  -1.247391  2.166830
599 3 1 0.0   -5.651507  -1.339738  1.557833
600 3 1 0.0   -6.070988  -1.716857  1.305707
601 3 1 0.0   -6.636399  -2.026578  1.413474
602 3 1 0.0   -7.074898  -2.291588  1.753327
603 3 2 0.0   -6.626078  -2.633050  2.010747
604 3 2 0.0   -6.295204  -3.136409  1.806237
605 3 2 0.0   -5.928856  -2.960084  1.339009
606 3 1 0.0   -6.091050  -2.444976  1.030331
607 3 2 0.0   -6.276507  -1.921033  0.720904
608 3 2 0.0   -6.516628  -1.360774  0.623266
609 3 1 0.0   -6.804060  -0.890629  0.964421
610 3 1 0.0   -6.240217  -0.767861  1.259480
611 3 1 0.0   -5.745172  -1.029626  0.957843
612 3 1 0.0   -5.623610  -1.607776  0.694964
613 3 1 0.0   -5.312202  -1.928971  0.271802
614 3 1 0.0   -5.419166  -2.563620  0.241230
615 3 2 0.0   -5.761774  -2.977053  -0.123310
616 3 2 0.0   -6.314750  -2.713537  -0.206258
617 3 2 0.0   -6.546607  -2.101254  -0.114908
618 3 2 0.0   -6.695265  -1.447196  -0.055535
619 3 2 0.0   -7.272956  -1.176599  -0.145763
620 3 1 0.0   -7.427437  -0.604487  -0.340608
621 3 1 0.0   -7.212176  -0.265159  -0.791436
622 3 1 0.0   -7.514832  -0.444620  -1.303346
623 3 2 0.0   -8.155496  -0.563123  -1.192632
624 3 2 0.0   -8.646360  -0.950007  -1.291206
625 3 2 0.0   -8.622938  -1.170718  -1.893404
626 3 2 0.0   -8.452814  -1.426941  -2.452784
627 3 2 0.0   -8.414115  -2.036568  -2.571064
628 3 1 0.0   -8.200260  -2.663363  -2.332044
629 3 1 0.0   -8.229350  -2.849947  -1.735440
630 3 2 0.0   -8.466889  -2.864654  -1.116731
631 3 2 0.0   -7.971654  -2.953598  -0.757217
632 3 2 0.0   -7.466518  -2.629495  -1.008478
633 3 2 0.0   -7.076231  -2.211751  -0.729692
634 3 1 0.0   -7.689347  -1.990838  -0.709770
635 3 1 0.0   -7.702414  -2.428784  -0.247939
636 3 1 0.0   -7.598213  -3.020901  -0.014660
637 3 2 0.0   -8.119364  -2.936124  -0.371680
638 3 2 0.0   -8.411619  -2.377903  -0.449838
639 3 2 0.0   -8.795833  -1.933293  -0.727665
640 3 2 0.0   -9.253005  -2.277929  -0.458393
641 3 2 0.0   -9.241950  -2.886506  -0.694479
642 3 2 0.0   -9.126583  -3.477448  -0.819408
643 3 2 0.0   -8.703053  -3.807035  -1.099340
644 3 1 0.0   -8.192378  -4.037642  -0.763370
645 3 1 0.0   -7.604185  -4.219818  -0.547478
646 3 1 0.0   -7.200263  -3.933610  -0.116066
647 3 2 0.0   -6.843219  -4.258612  0.341342
648 3 2 0.0   -6.860106  -4.443089  0.916295
649 3 1 0.0   -7.240785  -4.963282  1.054463
650 3 1 0.0   -7.828454  -5.116633  1.136631
651 3 1 0.0   -8.458185  -5.094500  1.181033
652 3 1 0.0   -8.645089  -4.913761  1.778262
653 3 1 0.0   -7.998994  -4.885731  1.949564
654 3 2 0.0   -7.366446  -4.987397  1.758694
655 3 2 0.0   -7.216404  -4.774609  2.316896
656 3 2 0.0   -7.755366  -4.546006  2.579197
657 3 2 0.0   -8.218848  -4.363692  2.877578
658 3 2 0.0   -8.763049  -4.523761  2.607225
659 3 1 0.0   -9.235923  -4.683688  2.180140
660 3 1 0.0   -9.242497  -4.453568  1.516498
661 3 1 0.0   -9.022128  -4.087421  0.999336
662 3 2 0.0   -8.487625  -4.371796  1.142639
663 3 2 0.0   -7.883464  -4.425433  0.973945
664 3 2 0.0   -7.454815  -4.097758  1.326760
665 3 2 0.0   -8.041878  -3.837089  1.320626
666 3 2 0.0   -8.448153  -3.398997  1.108734