#First Line
 8793 atoms
 6060 bonds
 6014 angles
 0 dihedrals
 0 impropers
 7 atom types
 1 bond types
 1 angle types
 0 dihedral types
 0 improper types
 -13.2 13.2 xlo xhi
 -13.2 13.2 ylo yhi
 -13.2 13.2 zlo zhi

Masses

1 1.0
2 1.0
3 1.0
4 1.0
5 1.0
6 1.0
7 1.0

Atoms

1 1 2 0.0   -0.034375  -1.018613  -2.194677
2 1 1 0.0   0.282774  -0.470165  -2.039053
3 1 1 0.0   0.638243  -0.029745  -2.256186
4 1 2 0.0   0.824543  -0.240008  -2.833815
5 1 2 0.0   0.329173  0.046615  -3.151497
6 1 2 0.0   0.048961  0.363992  -2.646589
7 1 1 0.0   -0.105772  0.381136  -2.055485
8 1 1 0.0   -0.174055  0.086180  -1.476305
9 1 1 0.0   -0.450155  -0.498853  -1.521825
10 1 1 0.0   -0.714802  -1.069761  -1.610007
11 1 1 0.0   -0.618453  -1.538626  -1.976706
12 1 1 0.0   -0.007288  -1.684371  -1.786939
13 1 1 0.0   0.533730  -1.443205  -1.655890
14 1 2 0.0   1.123972  -1.607922  -1.363185
15 1 2 0.0   1.064047  -2.061952  -1.849128
16 1 1 0.0   1.069293  -2.008480  -2.493869
17 1 1 0.0   1.251491  -1.416571  -2.416957
18 1 1 0.0   1.216186  -0.773639  -2.259176
19 1 2 0.0   1.168627  -0.262297  -1.892496
20 1 1 0.0   1.023912  0.166416  -1.477005
21 1 1 0.0   0.637330  0.647715  -1.475229
22 1 1 0.0   0.708797  1.009209  -1.974872
23 1 1 0.0   1.353485  0.906357  -1.934400
24 1 1 0.0   1.774150  0.543768  -1.568255
25 1 1 0.0   1.982111  0.009977  -1.376667
26 1 1 0.0   1.780023  -0.598831  -1.229035
27 1 1 0.0   1.331464  -0.967952  -1.487754
28 1 1 0.0   1.809679  -0.801664  -1.846376
29 1 1 0.0   2.041290  -0.730857  -2.470891
30 1 2 0.0   2.085504  -1.277643  -2.785319
31 1 2 0.0   1.830915  -1.782069  -2.992356
32 1 1 0.0   1.923875  -2.338344  -3.267573
33 1 1 0.0   2.165424  -2.817397  -3.663690
34 1 2 0.0   2.406142  -2.894724  -4.248110
35 1 2 0.0   2.242144  -2.428605  -4.659200
36 1 1 0.0   1.785171  -2.135946  -4.333764
37 1 2 0.0   1.473045  -2.523326  -3.958322
38 1 2 0.0   1.601607  -3.079779  -4.275416
39 1 2 0.0   1.295170  -2.868843  -4.767107
40 1 1 0.0   1.152711  -2.840150  -5.381578
41 1 1 0.0   1.149510  -3.225472  -5.880791
42 1 1 0.0   1.012258  -3.109448  -6.527260
43 1 1 0.0   0.699004  -2.558341  -6.632970
44 1 1 0.0   0.710249  -1.960710  -6.428447
45 1 1 0.0   1.069346  -1.417370  -6.318284
46 1 1 0.0   1.337311  -0.870604  -6.532388
47 1 1 0.0   1.391858  -0.207788  -6.725751
48 1 2 0.0   1.946595  -0.292770  -6.492306
49 1 2 0.0   2.374057  -0.587483  -6.852122
50 1 2 0.0   2.020517  -1.062476  -6.933355
51 1 2 0.0   1.431241  -1.245228  -7.191838
52 1 1 0.0   0.876411  -1.527691  -7.339193
53 1 1 0.0   0.289180  -1.479420  -7.113310
54 1 1 0.0   -0.238019  -1.573818  -6.794447
55 1 1 0.0   -0.747190  -1.427413  -6.419110
56 1 1 0.0   -1.378548  -1.275175  -6.472680
57 1 2 0.0   -1.795478  -1.500840  -6.916528
58 1 2 0.0   -2.374440  -1.731541  -7.181279
59 1 2 0.0   -2.495202  -1.366894  -7.709660
60 1 1 0.0   -2.353924  -0.753023  -7.733548
61 1 2 0.0   -2.427641  -0.534606  -7.145711
62 1 2 0.0   -2.611469  -0.811042  -6.590584
63 1 2 0.0   -2.494674  -1.283602  -6.187927
64 1 2 0.0   -2.679307  -1.865658  -6.457984
65 1 1 0.0   -3.059890  -1.624023  -6.944970
66 1 1 0.0   -3.491384  -1.547535  -7.433888
67 1 1 0.0   -3.451718  -1.198844  -7.956660
68 1 1 0.0   -3.299591  -0.594873  -7.967812
69 1 2 0.0   -2.815134  -0.833036  -8.353655
70 1 2 0.0   -2.564187  -1.382863  -8.442873
71 1 2 0.0   -2.314561  -1.231549  -8.992173
72 1 2 0.0   -2.209175  -1.048071  -9.605152
73 1 2 0.0   -2.394046  -0.467633  -9.528934
74 1 2 0.0   -2.653307  -0.415399  -8.953832
75 1 2 0.0   -3.219816  -0.284195  -9.165858
76 1 2 0.0   -3.262769  -0.377032  -9.790518
77 1 2 0.0   -3.142727  0.223533  -9.850635
78 1 1 0.0   -2.764625  0.203555  -9.346868
79 1 1 0.0   -2.389644  0.154055  -8.835249
80 1 2 0.0   -2.527411  -0.088748  -8.223127
81 1 2 0.0   -3.029653  0.011864  -7.829102
82 1 2 0.0   -3.279966  -0.305874  -7.326787
83 1 2 0.0   -3.612152  -0.620388  -6.854959
84 1 2 0.0   -4.073204  -0.822504  -6.458288
85 1 1 0.0   -3.646480  -1.255424  -6.704569
86 1 1 0.0   -3.762906  -1.848580  -6.522186
87 1 1 0.0   -3.906177  -2.474817  -6.581900
88 1 2 0.0   -3.269751  -2.570107  -6.391592
89 1 2 0.0   -2.905190  -2.042551  -6.296738
90 1 2 0.0   -3.178097  -1.499943  -6.214383
91 1 2 0.0   -3.293514  -0.858818  -6.128424
92 1 2 0.0   -3.609598  -0.330684  -6.201429
93 1 1 0.0   -3.396293  -0.061194  -5.681581
94 1 1 0.0   -2.803559  -0.149918  -5.400985
95 1 1 0.0   -2.439876  0.165534  -5.847294
96 1 2 0.0   -2.713384  0.720028  -6.142949
97 1 2 0.0   -3.030947  1.098421  -6.528263
98 1 1 0.0   -3.285997  1.644962  -6.746142
99 1 1 0.0   -3.638799  2.103202  -7.017822
100 1 2 0.0   -3.789262  2.274571  -6.447960
101 1 1 0.0   -3.555863  1.821966  -5.963766
102 1 2 0.0   -3.155298  1.391937  -5.637414
103 1 2 0.0   -3.060279  0.886369  -5.292571
104 1 2 0.0   -3.262122  0.561895  -4.789372
105 1 2 0.0   -3.608899  0.931955  -4.325173
106 1 2 0.0   -3.433788  1.559188  -4.342284
107 1 2 0.0   -3.393343  2.169779  -4.340179
108 1 2 0.0   -3.398009  1.987001  -4.923239
109 1 1 0.0   -3.702011  1.472088  -5.165626
110 1 1 0.0   -4.120868  1.261825  -4.730396
111 1 1 0.0   -4.042789  1.851108  -4.430664
112 1 2 0.0   -3.975228  2.417406  -4.119205
113 1 1 0.0   -4.152768  2.372863  -3.532780
114 1 1 0.0   -4.510287  1.943784  -3.888808
115 1 1 0.0   -4.918355  1.889157  -4.336655
116 1 1 0.0   -4.711715  2.491605  -4.427958
117 1 2 0.0   -4.707524  3.031224  -4.055538
118 1 1 0.0   -4.567025  3.332995  -3.550650
119 1 2 0.0   -4.113959  3.035876  -3.241639
120 1 1 0.0   -4.100655  2.403812  -3.493404
121 1 3 0.0   -3.956487  2.481674  -4.156542
122 1 3 0.0   -4.122623  2.502177  -4.788210
123 1 3 0.0   -4.282695  2.711767  -5.385662
124 1 3 0.0   -4.164461  3.031758  -5.879194
125 1 3 0.0   -4.655168  2.959335  -6.302360
126 1 3 0.0   -4.968805  2.452849  -6.539429
127 1 3 0.0   -5.348721  2.636294  -5.995488
128 1 3 0.0   -5.110208  3.150336  -5.649866
129 1 3 0.0   -5.656168  3.332435  -5.393007
130 1 4 0.0   -5.994491  3.416532  -5.956686
131 1 4 0.0   -6.478250  3.796515  -6.164125
132 1 4 0.0   -6.922071  4.185795  -6.363467
133 1 4 0.0   -6.840706  4.696887  -6.769766
134 1 4 0.0   -6.374085  4.548357  -7.195401
135 1 4 0.0   -5.896754  4.099065  -7.134756
136 1 3 0.0   -5.591617  3.913257  -6.616010
137 1 3 0.0   -5.078975  3.688489  -6.296316
138 1 3 0.0   -4.464886  3.645391  -5.990974
139 1 3 0.0   -4.403047  3.632589  -5.376259
140 1 3 0.0   -3.901887  3.375031  -5.044119
141 1 3 0.0   -3.656174  3.086543  -4.528468
142 1 3 0.0   -3.288228  3.131944  -4.025546
143 1 3 0.0   -3.148191  2.797283  -3.453071
144 1 3 0.0   -2.696253  2.287716  -3.445033
145 1 2 0.0   -2.639132  1.638983  -3.664205
146 1 1 0.0   -2.301607  1.460738  -4.202484
147 1 2 0.0   -2.625136  1.616177  -3.655996
148 1 2 0.0   -2.061074  1.352996  -3.502160
149 1 2 0.0   -1.726882  0.977547  -3.882486
150 1 2 0.0   -1.489991  0.501543  -3.533195
151 1 1 0.0   -1.322041  0.363576  -2.941629
152 1 1 0.0   -1.658516  -0.002018  -2.541124
153 1 2 0.0   -2.233651  -0.251374  -2.347622
154 1 1 0.0   -2.294071  -0.884825  -2.248261
155 1 1 0.0   -2.782383  -1.257404  -2.371358
156 1 1 0.0   -2.408834  -1.785131  -2.554500
157 1 1 0.0   -2.136289  -2.376420  -2.490035
158 1 2 0.0   -1.826579  -2.930748  -2.566154
159 1 2 0.0   -1.664218  -3.414269  -2.189754
160 1 1 0.0   -1.453908  -3.805126  -1.748025
161 1 2 0.0   -1.079462  -4.307058  -1.955939
162 1 1 0.0   -0.762889  -4.425266  -2.505437
163 1 1 0.0   -0.450509  -4.732409  -2.996724
164 1 2 0.0   -0.256615  -5.044680  -3.500577
165 1 2 0.0   -0.229451  -5.461188  -4.008738
166 1 2 0.0   -0.332162  -5.189270  -4.538406
167 1 2 0.0   -0.694801  -4.818961  -4.152101
168 1 2 0.0   -0.936455  -5.285279  -3.764213
169 1 2 0.0   -0.806845  -5.837805  -3.527903
170 1 2 0.0   -0.857670  -6.184819  -2.988845
171 1 1 0.0   -1.250580  -6.424415  -2.549313
172 1 1 0.0   -1.569602  -6.527755  -2.005847
173 1 1 0.0   -1.991600  -7.027325  -1.859092
174 1 1 0.0   -2.013707  -7.307188  -2.444013
175 1 2 0.0   -1.662601  -7.328832  -3.009157
176 1 2 0.0   -1.035401  -7.253736  -3.098593
177 1 2 0.0   -0.664379  -6.779797  -2.911505
178 1 2 0.0   -0.321673  -6.336510  -2.593091
179 1 1 0.0   -0.203117  -5.728077  -2.446164
180 1 1 0.0   -0.213906  -5.502603  -1.837461
181 1 1 0.0   -0.487270  -5.417859  -1.283113
182 1 2 0.0   -0.738202  -5.808697  -0.882390
183 1 2 0.0   -1.190998  -5.930316  -1.283615
184 1 1 0.0   -1.786028  -6.010639  -1.573878
185 1 1 0.0   -2.131175  -5.761072  -2.061655
186 1 1 0.0   -2.486841  -5.200957  -2.148438
187 1 1 0.0   -2.973522  -4.824412  -2.324360
188 1 2 0.0   -3.229332  -5.128599  -1.878467
189 1 2 0.0   -3.174547  -5.597463  -1.447421
190 1 2 0.0   -2.943807  -6.062468  -1.825147
191 1 2 0.0   -3.371032  -6.454579  -2.045890
192 1 2 0.0   -3.662931  -6.335448  -2.568668
193 1 2 0.0   -3.907609  -6.227640  -3.189949
194 1 1 0.0   -4.213604  -6.133565  -3.770376
195 1 2 0.0   -4.609021  -6.632178  -3.908717
196 1 2 0.0   -4.475319  -6.605980  -3.280177
197 1 2 0.0   -4.299661  -6.100728  -2.891662
198 1 1 0.0   -4.042927  -5.524657  -3.046085
199 1 1 0.0   -3.384223  -5.574083  -2.958318
200 1 1 0.0   -2.823871  -5.751398  -2.678620
201 1 1 0.0   -2.308642  -5.674863  -3.015380
202 1 1 0.0   -2.116044  -5.065499  -3.172752
203 1 1 0.0   -2.745640  -5.083977  -3.287766
204 1 1 0.0   -3.183251  -5.253175  -3.751035
205 1 1 0.0   -2.997015  -4.650496  -3.845367
206 1 1 0.0   -2.694676  -4.164863  -4.109841
207 1 1 0.0   -2.171290  -4.385672  -4.360589
208 1 1 0.0   -2.201573  -4.690690  -4.902709
209 1 2 0.0   -2.415024  -4.560730  -5.531315
210 1 2 0.0   -2.352202  -4.306102  -6.105810
211 1 2 0.0   -2.597578  -4.138613  -6.661939
212 1 1 0.0   -2.535541  -3.682788  -7.132711
213 1 1 0.0   -2.391294  -3.091730  -7.389147
214 1 2 0.0   -2.510584  -2.480539  -7.517036
215 1 1 0.0   -2.918955  -2.429944  -6.959223
216 1 1 0.0   -3.232572  -2.990462  -7.054777
217 1 2 0.0   -3.383841  -3.632959  -6.978690
218 1 2 0.0   -3.487220  -4.198320  -6.744954
219 1 2 0.0   -3.559070  -4.523881  -6.195978
220 1 2 0.0   -3.228118  -4.668940  -5.653990
221 1 2 0.0   -3.320952  -4.409501  -5.045175
222 1 1 0.0   -3.437768  -3.955471  -4.630501
223 1 1 0.0   -3.359266  -3.733923  -4.069917
224 1 1 0.0   -3.562990  -3.210459  -3.700381
225 1 1 0.0   -3.862366  -2.789430  -3.289290
226 1 1 0.0   -3.443179  -2.903461  -2.787385
227 1 1 0.0   -3.547568  -3.171202  -2.233136
228 1 1 0.0   -3.393297  -3.167117  -1.633024
229 1 2 0.0   -2.956259  -3.417825  -1.290794
230 1 2 0.0   -2.712341  -3.625317  -1.817077
231 1 2 0.0   -2.420145  -4.016670  -2.251857
232 1 2 0.0   -2.073738  -4.537535  -2.420270
233 1 2 0.0   -1.530371  -4.816817  -2.506057
234 1 2 0.0   -1.727271  -5.112596  -1.983642
235 1 1 0.0   -2.154305  -4.851250  -1.550702
236 1 1 0.0   -2.260627  -4.538142  -1.004431
237 1 2 0.0   -2.651182  -4.479886  -0.486028
238 1 2 0.0   -2.693956  -5.133509  -0.436188
239 1 2 0.0   -2.411823  -5.642495  -0.701987
240 1 2 0.0   -2.383441  -6.244692  -0.873976
241 1 1 0.0   -2.531404  -6.632310  -1.384335
242 1 2 0.0   -3.110814  -6.841629  -1.542717
243 1 2 0.0   -3.541688  -6.392931  -1.352231
244 1 1 0.0   -3.243295  -6.340595  -0.802694
245 1 1 0.0   -2.766994  -6.777685  -0.750146
246 1 1 0.0   -2.155776  -6.847503  -0.679313
247 1 1 0.0   -1.694896  -7.280000  -0.598340
248 1 2 0.0   -1.402924  -7.754335  -0.893219
249 1 2 0.0   -0.822880  -7.752619  -1.188319
250 1 2 0.0   -0.413805  -7.550162  -1.629428
251 2 2 0.0   4.621361  0.905849  -0.625904
252 2 1 0.0   4.202755  1.175108  -1.031382
253 2 1 0.0   3.598565  1.387212  -1.233073
254 2 2 0.0   3.474445  0.818465  -1.521568
255 2 2 0.0   2.972064  0.641914  -1.931008
256 2 2 0.0   2.661232  0.311925  -2.354280
257 2 1 0.0   2.121626  0.119514  -2.625175
258 2 1 0.0   1.665465  -0.315949  -2.840619
259 2 1 0.0   1.559716  -0.704184  -3.267098
260 2 1 0.0   1.078063  -1.136939  -3.426496
261 2 1 0.0   0.523857  -1.102123  -3.088985
262 2 1 0.0   0.120627  -0.687278  -3.351030
263 2 1 0.0   -0.540061  -0.893483  -3.338393
264 2 2 0.0   -0.978128  -0.863418  -2.857321
265 2 2 0.0   -1.241771  -0.745263  -2.264963
266 2 1 0.0   -1.109586  -0.332509  -1.776308
267 2 1 0.0   -1.189078  -0.349243  -1.137031
268 2 1 0.0   -0.759880  -0.718629  -0.932654
269 2 2 0.0   -0.392083  -0.633685  -0.429339
270 2 1 0.0   -0.558046  -0.001412  -0.518891
271 2 1 0.0   -0.840532  0.310950  -1.039261
272 2 1 0.0   -0.825698  0.421689  -1.629639
273 2 1 0.0   -0.770168  0.573350  -2.276293
274 2 1 0.0   -0.885003  0.371374  -2.865860
275 2 1 0.0   -0.678838  0.421490  -3.448801
276 2 1 0.0   -1.032365  0.053266  -3.846938
277 2 1 0.0   -1.256407  -0.511850  -3.566098
278 2 1 0.0   -1.710688  -0.821098  -3.265125
279 2 1 0.0   -1.736226  -1.054491  -2.666755
280 2 2 0.0   -1.672381  -1.213441  -2.049229
281 2 2 0.0   -1.529321  -1.817558  -1.828559
282 2 1 0.0   -1.260954  -2.321642  -2.034606
283 2 1 0.0   -0.874907  -2.654112  -2.432267
284 2 2 0.0   -1.143736  -2.261703  -2.802305
285 2 2 0.0   -1.588824  -1.937488  -3.076882
286 2 1 0.0   -1.792588  -1.426879  -3.365443
287 2 2 0.0   -1.152308  -1.499461  -3.361490
288 2 2 0.0   -1.009823  -1.594394  -2.757194
289 2 2 0.0   -0.847112  -1.446550  -3.359246
290 2 1 0.0   -0.625873  -1.203774  -3.934275
291 2 1 0.0   -0.090608  -0.878028  -4.080337
292 2 1 0.0   0.492217  -0.626112  -3.890346
293 2 1 0.0   0.904760  -0.136104  -3.897334
294 2 1 0.0   1.272383  0.002721  -3.394663
295 2 1 0.0   1.727548  0.454568  -3.554873
296 2 1 0.0   2.150259  0.629421  -3.132353
297 2 1 0.0   2.728132  0.359397  -3.141981
298 2 2 0.0   3.206051  0.131444  -3.502517
299 2 2 0.0   3.569873  -0.169258  -3.926330
300 2 2 0.0   3.392571  -0.782369  -3.997229
301 2 2 0.0   3.062298  -1.357457  -3.858037
302 2 1 0.0   2.830786  -1.889454  -3.621747
303 2 1 0.0   2.761952  -2.328274  -3.170192
304 2 1 0.0   2.718663  -2.862230  -2.810739
305 2 1 0.0   2.290257  -3.339951  -2.756864
306 2 1 0.0   1.990881  -3.859773  -2.941240
307 2 2 0.0   1.753357  -4.279659  -3.305121
308 2 2 0.0   1.730610  -4.597678  -3.881160
309 2 2 0.0   2.275706  -4.932609  -3.772501
310 2 1 0.0   2.807202  -4.728925  -3.453856
311 2 2 0.0   3.408778  -4.889610  -3.427044
312 2 2 0.0   4.002792  -4.959982  -3.274918
313 2 2 0.0   4.554428  -5.169216  -2.907928
314 2 2 0.0   4.969768  -4.817457  -3.296345
315 2 1 0.0   5.063903  -4.429635  -3.780129
316 2 1 0.0   4.881276  -4.073098  -4.259915
317 2 1 0.0   4.812871  -3.450015  -4.424289
318 2 1 0.0   4.608896  -2.846254  -4.434491
319 2 2 0.0   4.017317  -2.934635  -4.262957
320 2 2 0.0   3.870938  -3.552880  -4.411369
321 2 2 0.0   4.294428  -3.954739  -4.643046
322 2 2 0.0   4.533186  -3.537788  -5.053549
323 2 2 0.0   5.130552  -3.443212  -5.110637
324 2 2 0.0   5.565076  -3.734082  -5.453909
325 2 2 0.0   5.022652  -3.724520  -5.821704
326 2 2 0.0   4.651334  -4.023064  -6.254604
327 2 2 0.0   4.167668  -4.391829  -6.172228
328 2 1 0.0   3.832789  -4.914449  -6.173522
329 2 1 0.0   3.394208  -5.259978  -5.929234
330 2 2 0.0   2.777948  -5.386725  -6.017080
331 2 2 0.0   2.946684  -5.285411  -5.406363
332 2 2 0.0   3.440605  -5.121663  -4.995761
333 2 2 0.0   3.545225  -5.640938  -5.271282
334 2 2 0.0   3.310282  -5.955551  -5.727140
335 2 1 0.0   3.815408  -6.321062  -5.627462
336 2 1 0.0   4.433271  -6.100636  -5.431644
337 2 1 0.0   4.918646  -5.736438  -5.160941
338 2 2 0.0   5.311523  -5.212010  -5.094370
339 2 2 0.0   5.120476  -4.603769  -5.137593
340 2 2 0.0   4.726226  -4.125507  -5.187198
341 2 2 0.0   4.610856  -4.442694  -5.723484
342 2 2 0.0   4.557549  -5.040001  -5.847004
343 2 1 0.0   4.402150  -5.052711  -5.269989
344 2 1 0.0   4.534717  -5.214498  -4.677413
345 2 1 0.0   4.642623  -4.882760  -4.158581
346 2 2 0.0   4.015977  -4.760534  -4.254530
347 2 2 0.0   4.011655  -4.538445  -4.852332
348 2 1 0.0   3.755693  -4.105387  -5.182163
349 2 1 0.0   3.630656  -3.481149  -5.133060
350 2 2 0.0   3.641650  -2.887458  -5.114517
351 2 1 0.0   3.089631  -2.683695  -4.860047
352 2 2 0.0   3.118205  -3.135897  -4.399213
353 2 2 0.0   2.995702  -3.754321  -4.385322
354 2 2 0.0   2.883895  -4.329238  -4.606369
355 2 2 0.0   2.656738  -4.789629  -5.034530
356 2 2 0.0   2.530889  -5.327710  -5.309946
357 2 2 0.0   2.553042  -5.920972  -5.530695
358 2 2 0.0   2.489401  -6.436010  -5.929590
359 2 1 0.0   2.182654  -6.419525  -6.466550
360 2 1 0.0   1.844245  -6.508018  -7.051345
361 2 1 0.0   1.684780  -5.899525  -7.205629
362 2 2 0.0   1.705171  -5.322781  -7.440553
363 2 1 0.0   1.763229  -4.787365  -6.999939
364 2 1 0.0   1.437589  -4.496509  -6.501610
365 2 1 0.0   1.859779  -4.052602  -6.288984
366 2 1 0.0   2.241365  -3.949314  -5.793658
367 2 2 0.0   2.486227  -3.726335  -5.185733
368 2 1 0.0   2.275871  -3.851372  -4.564808
369 2 2 0.0   2.205843  -4.505087  -4.472000
370 2 1 0.0   1.907674  -5.063256  -4.477213
371 2 3 0.0   1.314828  -5.239798  -4.583338
372 2 3 0.0   1.003151  -5.527112  -5.094040
373 2 3 0.0   1.130281  -6.158786  -5.020013
374 2 3 0.0   1.463602  -6.703909  -5.160518
375 2 3 0.0   1.678267  -7.213680  -4.847872
376 2 3 0.0   1.998793  -6.675467  -4.815068
377 2 3 0.0   2.072286  -6.046755  -4.844295
378 2 3 0.0   2.449603  -5.573938  -4.713477
379 2 3 0.0   3.117149  -5.709184  -4.721805
380 2 4 0.0   3.438500  -6.126425  -4.335606
381 2 4 0.0   3.345731  -6.211638  -3.717967
382 2 4 0.0   3.130486  -6.681010  -3.248436
383 2 4 0.0   2.699097  -6.675929  -2.826286
384 2 4 0.0   2.378023  -6.255785  -2.421168
385 2 4 0.0   1.852540  -5.999005  -2.651393
386 2 3 0.0   1.467806  -6.119219  -3.162603
387 2 3 0.0   1.661948  -6.032383  -3.749002
388 2 3 0.0   1.977894  -5.792298  -4.229580
389 2 3 0.0   1.939217  -6.406690  -4.097164
390 2 3 0.0   2.044590  -6.993538  -4.261446
391 2 3 0.0   1.509887  -7.042371  -3.938769
392 2 3 0.0   0.967345  -7.074838  -3.620414
393 2 3 0.0   1.274455  -6.929924  -3.066027
394 2 3 0.0   1.884723  -6.821964  -3.261119
395 2 2 0.0   2.360094  -6.686091  -3.628049
396 2 1 0.0   2.415011  -6.071488  -3.399031
397 2 2 0.0   2.868730  -5.661078  -3.437820
398 2 2 0.0   3.500662  -5.549047  -3.309199
399 2 2 0.0   4.046788  -5.566805  -3.682893
400 2 2 0.0   4.066638  -6.069192  -3.338525
401 2 1 0.0   4.295543  -6.142526  -2.757234
402 2 1 0.0   4.048814  -5.824046  -2.251897
403 2 2 0.0   3.810056  -5.249611  -2.409659
404 2 1 0.0   3.201742  -5.048223  -2.532783
405 2 1 0.0   2.568496  -5.021827  -2.786237
406 2 1 0.0   2.786421  -5.524373  -3.103437
407 2 1 0.0   3.034246  -5.965020  -2.703987
408 2 2 0.0   3.325770  -6.500224  -2.448058
409 2 2 0.0   3.552530  -7.090411  -2.435619
410 2 1 0.0   3.303953  -7.350015  -2.972955
411 2 2 0.0   3.243804  -7.456127  -3.588798
412 2 1 0.0   2.757966  -7.248523  -3.912465
413 2 1 0.0   2.720583  -7.356416  -4.546067
414 2 2 0.0   2.211940  -7.730711  -4.766671
415 2 2 0.0   1.797234  -8.086858  -5.055951
416 2 2 0.0   1.840470  -8.664995  -4.844466
417 2 2 0.0   1.727561  -9.215680  -4.509502
418 2 2 0.0   2.186283  -9.474558  -4.166711
419 2 2 0.0   2.178787  -9.316249  -3.546611
420 2 2 0.0   2.144472  -8.842244  -3.088939
421 2 1 0.0   2.316917  -8.176802  -3.138187
422 2 1 0.0   2.892856  -7.977447  -3.193288
423 2 1 0.0   3.349664  -8.385198  -3.166661
424 2 1 0.0   3.843961  -8.751640  -3.014007
425 2 2 0.0   4.299390  -9.101386  -3.235449
426 2 2 0.0   4.799686  -8.804827  -3.480687
427 2 2 0.0   5.069155  -8.237909  -3.511003
428 2 2 0.0   4.974434  -7.597147  -3.654953
429 2 1 0.0   4.726866  -7.086056  -4.037892
430 2 1 0.0   4.098940  -6.974335  -4.268685
431 2 1 0.0   3.568025  -7.237173  -4.531747
432 2 2 0.0   3.013796  -6.949787  -4.603425
433 2 2 0.0   2.696636  -6.856279  -5.172212
434 2 1 0.0   2.789305  -7.339061  -5.593253
435 2 1 0.0   3.325037  -7.105919  -5.226614
436 2 1 0.0   3.637836  -6.667944  -4.897562
437 2 1 0.0   4.259671  -6.566128  -4.820822
438 2 2 0.0   4.703341  -6.254148  -4.462451
439 2 2 0.0   4.778351  -6.040942  -3.857681
440 2 2 0.0   4.650892  -6.450442  -3.391654
441 2 2 0.0   4.279171  -6.974401  -3.505499
442 2 2 0.0   4.000720  -7.527264  -3.673787
443 2 2 0.0   3.985820  -8.154365  -3.600927
444 2 1 0.0   3.934288  -8.805487  -3.706109
445 2 2 0.0   3.385048  -9.110360  -3.889607
446 2 2 0.0   2.882443  -8.987157  -4.245622
447 2 2 0.0   2.288990  -8.777310  -4.275825
448 2 1 0.0   1.798204  -8.494015  -4.065602
449 2 1 0.0   1.618507  -8.558157  -3.475514
450 2 1 0.0   1.711051  -7.948807  -3.557770
451 2 1 0.0   1.887613  -7.818213  -4.186521
452 2 1 0.0   2.553094  -7.978569  -4.220447
453 2 1 0.0   3.151292  -7.936731  -4.366568
454 2 1 0.0   3.713994  -7.911193  -4.652080
455 2 1 0.0   3.929484  -8.478178  -4.930174
456 2 1 0.0   3.342973  -8.609629  -5.016938
457 2 1 0.0   2.918322  -9.017513  -5.277637
458 2 1 0.0   3.258130  -9.411538  -4.904121
459 2 2 0.0   3.454034  -9.754751  -4.404697
460 2 2 0.0   3.867553  -9.744523  -3.899182
461 2 2 0.0   3.793110  -9.615447  -3.261185
462 2 1 0.0   3.770706  -9.775208  -2.638083
463 2 1 0.0   3.272661  -10.141716  -2.717719
464 2 2 0.0   2.750411  -10.365157  -2.932985
465 2 1 0.0   2.604817  -10.932340  -2.703710
466 2 1 0.0   3.009612  -11.250081  -2.344613
467 2 2 0.0   3.017307  -10.651949  -2.078918
468 2 2 0.0   2.593573  -10.217604  -2.055947
469 2 2 0.0   2.215174  -9.749076  -2.260528
470 2 2 0.0   2.175052  -9.743335  -2.905223
471 2 2 0.0   2.204510  -10.215954  -3.385094
472 2 1 0.0   2.664657  -10.620604  -3.619827
473 2 1 0.0   3.246780  -10.339289  -3.833198
474 2 1 0.0   2.961697  -9.822787  -3.482344
475 2 1 0.0   3.194107  -9.389431  -3.088358
476 2 1 0.0   3.214524  -9.288005  -2.442819
477 2 1 0.0   2.921799  -9.100396  -1.889797
478 2 1 0.0   2.773296  -8.532091  -1.624439
479 2 2 0.0   2.632005  -7.911853  -1.668217
480 2 2 0.0   2.426506  -7.523964  -2.082758
481 2 2 0.0   2.105611  -7.105655  -2.371972
482 2 2 0.0   1.609393  -6.697112  -2.242328
483 2 2 0.0   1.429129  -6.292092  -1.774678
484 2 2 0.0   1.574604  -6.439072  -1.194568
485 2 1 0.0   1.453110  -7.111132  -1.026175
486 2 1 0.0   1.254982  -7.692239  -0.871112
487 2 2 0.0   1.075503  -8.242528  -0.609579
488 2 2 0.0   1.667220  -8.401497  -0.759352
489 2 2 0.0   1.655091  -8.071086  -1.320972
490 2 2 0.0   1.031606  -8.264107  -1.312551
491 2 1 0.0   0.862784  -8.841650  -1.139460
492 2 2 0.0   1.445838  -8.839472  -1.353769
493 2 2 0.0   1.657705  -8.673904  -1.978851
494 2 1 0.0   1.784497  -8.106589  -2.225006
495 2 1 0.0   1.558990  -7.516640  -2.222426
496 2 1 0.0   1.173880  -7.758426  -2.628250
497 2 1 0.0   0.785550  -8.164924  -2.936099
498 2 2 0.0   0.690458  -8.615832  -2.467116
499 2 2 0.0   0.409850  -9.168959  -2.360741
500 2 2 0.0   0.131691  -9.703081  -2.145825
501 3 2 0.0   3.217467  2.014188  1.321071
502 3 2 0.0   3.419073  2.539850  1.029461
503 3 2 0.0   3.961252  2.854800  1.145161
504 3 2 0.0   4.118195  3.426668  1.380125
505 3 2 0.0   4.350724  3.934321  1.693095
506 3 2 0.0   4.457687  4.511838  1.948020
507 3 2 0.0   3.993706  4.691845  2.309453
508 3 2 0.0   3.560317  5.133852  2.208344
509 3 1 0.0   3.279900  5.721538  2.179222
510 3 1 0.0   2.925462  6.025691  2.610704
511 3 1 0.0   3.279471  6.372699  3.014443
512 3 1 0.0   3.674262  5.907688  3.144337
513 3 1 0.0   3.829754  5.303809  3.055218
514 3 2 0.0   4.308972  5.145242  2.726430
515 3 2 0.0   4.830199  4.981811  2.460141
516 3 2 0.0   5.238868  4.508182  2.374473
517 3 2 0.0   5.882467  4.520839  2.480248
518 3 2 0.0   6.462551  4.658204  2.325370
519 3 1 0.0   6.102840  4.969847  1.910974
520 3 1 0.0   5.686061  5.372887  1.626208
521 3 1 0.0   5.399943  5.948496  1.473058
522 3 2 0.0   5.854639  6.364958  1.361964
523 3 2 0.0   5.848911  6.849680  0.970282
524 3 1 0.0   5.961668  7.401883  0.635106
525 3 1 0.0   6.351919  7.923005  0.518690
526 3 1 0.0   6.475010  8.230188  -0.050698
527 3 1 0.0   6.741259  8.137274  -0.619269
528 3 1 0.0   7.059726  8.165584  -1.146640
529 3 1 0.0   7.478629  8.627843  -1.328244
530 3 2 0.0   8.050365  8.839076  -1.356006
531 3 1 0.0   8.412452  8.651995  -0.833373
532 3 2 0.0   8.329371  8.333594  -0.249974
533 3 1 0.0   7.994076  7.894102  0.020245
534 3 1 0.0   7.659508  7.778685  0.536587
535 3 2 0.0   7.097472  7.543893  0.596544
536 3 2 0.0   6.780787  7.289041  1.099424
537 3 1 0.0   6.515937  6.858853  1.474484
538 3 1 0.0   6.911579  6.397214  1.775087
539 3 1 0.0   7.162538  6.527782  1.232116
540 3 1 0.0   7.443919  6.804213  0.721302
541 3 1 0.0   7.379315  6.464082  0.188579
542 3 2 0.0   7.631594  6.294448  -0.344382
543 3 1 0.0   7.730117  5.908328  -0.876451
544 3 1 0.0   7.614964  5.321217  -0.702297
545 3 1 0.0   7.996056  4.865187  -0.519353
546 3 1 0.0   8.172843  4.408076  -0.940276
547 3 1 0.0   8.241472  3.970893  -1.427710
548 3 1 0.0   8.283178  3.346589  -1.481129
549 3 2 0.0   7.795645  2.972130  -1.332130
550 3 2 0.0   7.460548  2.434583  -1.296199
551 3 2 0.0   7.230178  1.861824  -1.543648
552 3 2 0.0   7.301975  1.665003  -2.143852
553 3 2 0.0   7.921025  1.588032  -2.300551
554 3 1 0.0   8.443401  1.970965  -2.300353
555 3 1 0.0   8.127178  2.546251  -2.305019
556 3 1 0.0   7.904594  3.034365  -2.096359
557 3 1 0.0   7.855761  3.713486  -2.170366
558 3 2 0.0   7.356416  4.172004  -2.265550
559 3 2 0.0   6.823548  3.977815  -1.937013
560 3 2 0.0   6.762310  4.580435  -1.833231
561 3 2 0.0   6.103876  4.776094  -1.821399
562 3 1 0.0   5.797169  4.651169  -1.292451
563 3 1 0.0   6.288126  4.653993  -0.916414
564 3 1 0.0   6.737959  4.236020  -1.087526
565 3 1 0.0   7.135284  3.714179  -1.207350
566 3 1 0.0   7.387629  3.291494  -0.742472
567 3 1 0.0   7.183919  3.809092  -0.485706
568 3 1 0.0   7.356416  4.435356  -0.393501
569 3 1 0.0   7.083548  4.700879  0.094897
570 3 1 0.0   6.671376  5.102243  0.289864
571 3 1 0.0   6.487779  5.659131  0.127904
572 3 1 0.0   6.581808  6.065081  -0.299959
573 3 1 0.0   6.694802  6.566868  0.056506
574 3 1 0.0   6.328189  6.513746  0.588249
575 3 1 0.0   6.093971  5.941462  0.736565
576 3 1 0.0   6.464022  5.705429  1.203424
577 3 2 0.0   6.919497  5.282514  1.165466
578 3 2 0.0   7.061772  5.343528  1.787342
579 3 2 0.0   7.660102  5.463715  1.613379
580 3 2 0.0   7.722924  5.709164  1.035163
581 3 2 0.0   7.948477  6.114256  0.631715
582 3 2 0.0   8.288787  6.579604  0.363345
583 3 2 0.0   8.375827  6.979614  -0.140059
584 3 2 0.0   8.017503  7.189726  -0.658897
585 3 1 0.0   7.390665  7.060650  -0.704178
586 3 1 0.0   6.872777  6.645244  -0.605426
587 3 1 0.0   6.391744  6.578785  -1.005138
588 3 1 0.0   5.783693  6.372725  -1.009671
589 3 2 0.0   5.589921  5.830295  -0.752324
590 3 2 0.0   5.125616  5.389272  -0.681002
591 3 2 0.0   4.536202  5.567135  -0.566011
592 3 3 0.0   4.070023  5.748171  -0.155654
593 3 3 0.0   3.516196  5.430536  -0.154152
594 3 3 0.0   3.147597  5.931445  0.009732
595 3 3 0.0   3.172317  6.495605  -0.290268
596 3 3 0.0   3.768066  6.302202  -0.414998
597 3 3 0.0   3.339297  5.969732  -0.709490
598 3 1 0.0   2.768743  6.266323  -0.839734
599 3 1 0.0   2.414846  6.469882  -0.330380
600 3 1 0.0   2.544760  6.874228  0.160200
601 3 1 0.0   2.640894  7.313127  0.628642
602 3 1 0.0   2.680145  7.360970  1.310598
603 3 2 0.0   2.824504  7.572269  1.891183
604 3 2 0.0   3.451751  7.628492  2.077585
605 3 2 0.0   3.952257  7.842234  1.713532
606 3 1 0.0   4.272862  8.415223  1.684925
607 3 2 0.0   4.059867  8.797041  2.159340
608 3 2 0.0   3.654016  9.135898  2.499194
609 3 1 0.0   3.904190  9.594792  2.851289
610 3 1 0.0   4.279455  9.990401  3.200956
611 3 1 0.0   4.410392  9.947640  3.809838
612 3 1 0.0   4.345867  9.313939  3.663855
613 3 1 0.0   4.625789  8.936279  3.275334
614 3 1 0.0   4.496773  8.858675  2.693950
615 3 2 0.0   4.938660  9.073934  2.274221
616 3 2 0.0   4.968065  8.974355  1.609664
617 3 2 0.0   5.069941  9.108183  0.973337
618 3 2 0.0   4.994039  9.135239  0.368722
619 3 2 0.0   4.496984  9.005832  -0.010350
620 3 1 0.0   4.229903  8.488538  0.264234
621 3 1 0.0   4.012321  8.484447  0.805188
622 3 1 0.0   3.733521  8.816706  1.272832
623 3 2 0.0   3.257101  9.097294  1.037895
624 3 2 0.0   3.445917  8.872533  0.444529
625 3 2 0.0   3.582536  8.515264  -0.065659
626 3 2 0.0   3.259918  8.081117  -0.350871
627 3 2 0.0   3.218061  8.113584  0.319710
628 3 1 0.0   3.210281  8.245827  0.943899
629 3 1 0.0   2.751744  8.020604  0.511240
630 3 2 0.0   2.154192  8.238701  0.555856
631 3 2 0.0   1.827279  8.069371  0.033965
632 3 2 0.0   1.879549  8.342041  -0.536562
633 3 2 0.0   1.831766  8.875569  -0.889418
634 3 1 0.0   2.095613  9.080863  -1.449025
635 3 1 0.0   2.402248  9.412528  -1.864246
636 3 1 0.0   2.260601  10.074472  -1.946608
637 3 2 0.0   1.758478  9.683482  -2.022774
638 3 2 0.0   2.018227  9.195619  -2.371180
639 3 2 0.0   2.521637  9.516066  -2.605708
640 3 2 0.0   2.585212  9.896695  -3.124870
641 3 2 0.0   2.567315  10.152736  -3.731211
642 3 2 0.0   3.036536  10.439000  -4.006798
643 3 2 0.0   3.341970  9.884751  -3.777411
644 3 1 0.0   3.199861  9.664147  -3.156961
645 3 1 0.0   3.515154  9.474690  -2.601010
646 3 1 0.0   4.039720  9.822655  -2.364185
647 3 2 0.0   4.625631  9.629437  -2.387678
648 3 2 0.0   4.919787  9.067203  -2.398203
649 3 1 0.0   4.462629  8.622629  -2.433336
650 3 1 0.0   4.024694  8.883487  -2.021632
651 3 1 0.0   3.428628  8.746690  -2.214078
652 3 1 0.0   3.384243  8.186832  -1.967566
653 3 1 0.0   3.553006  7.718173  -1.580444
654 3 2 0.0   3.926416  7.222259  -1.556206
655 3 2 0.0   4.416364  6.748122  -1.561247
656 3 2 0.0   5.036754  6.804147  -1.511471
657 3 2 0.0   5.049965  7.071868  -0.937260
658 3 2 0.0   4.420224  7.065797  -0.807419
659 3 1 0.0   4.018670  7.489782  -0.570321
660 3 1 0.0   3.652301  7.501000  -0.053296
661 3 1 0.0   3.689334  7.215726  0.508403
662 3 2 0.0   4.162818  7.138320  0.877975
663 3 2 0.0   4.162560  6.922071  1.486659
664 3 2 0.0   4.044564  6.323715  1.736213
665 3 2 0.0   4.607550  6.533503  1.831971